# LAMMPS data file written by OVITO Basic 3.5.2
969 atoms
3 atom types
0.0 76.0 xlo xhi
0.0 12.762 ylo yhi
0.0 12.2802 zlo zhi

Masses

1 12.0107  # C
2 15.9994  # O
3 1.00794  # H

Atoms  # atomic

1 1 8.0 0.0 0.0
2 1 8.0 2.836000175 0.0
3 1 8.0 0.0 2.455998212
4 1 8.0 0.708999485 1.227995753
5 1 8.0 2.12700069 1.227995753
6 1 8.0 2.836000175 2.455998212
7 1 8.0 0.0 4.912097007
8 1 8.0 0.708999485 3.684096783
9 1 8.0 2.12700069 3.684096783
10 1 8.0 2.836000175 4.912097007
11 1 8.0 0.0 7.368097454
12 1 8.0 0.708999485 6.14009723
13 1 8.0 2.12700069 6.14009723
14 1 8.0 2.836000175 7.368097454
15 1 8.0 0.0 9.824200719
16 1 8.0 0.708999485 8.596200496
17 1 8.0 2.12700069 8.596200496
18 1 8.0 2.836000175 9.824200719
19 1 8.0 0.708999485 11.052200943
20 1 8.0 2.12700069 11.052200943
21 1 8.0 4.254001379 0.0
22 1 8.0 7.089999318 0.0
23 1 8.0 4.254001379 2.455998212
24 1 8.0 4.963000864 1.227995753
25 1 8.0 6.380997598 1.227995753
26 1 8.0 7.089999318 2.455998212
27 1 8.0 4.254001379 4.912097007
28 1 8.0 4.963000864 3.684096783
29 1 8.0 6.380997598 3.684096783
30 1 8.0 7.089999318 4.912097007
31 1 8.0 4.254001379 7.368097454
32 1 8.0 4.963000864 6.14009723
33 1 8.0 6.380997598 6.14009723
34 1 8.0 7.089999318 7.368097454
35 1 8.0 4.254001379 9.824200719
36 1 8.0 4.963000864 8.596200496
37 1 8.0 6.380997598 8.596200496
38 1 8.0 7.089999318 9.824200719
39 1 8.0 4.963000864 11.052200943
40 1 8.0 6.380997598 11.052200943
41 1 8.0 8.507998288 0.0
42 1 8.0 11.343996227 0.0
43 1 8.0 8.507998288 2.455998212
44 1 8.0 9.217000008 1.227995753
45 1 8.0 10.634998977 1.227995753
46 1 8.0 11.343996227 2.455998212
47 1 8.0 8.507998288 4.912097007
48 1 8.0 9.217000008 3.684096783
49 1 8.0 10.634998977 3.684096783
50 1 8.0 11.343996227 4.912097007
51 1 8.0 8.507998288 7.368097454
52 1 8.0 9.217000008 6.14009723
53 1 8.0 10.634998977 6.14009723
54 1 8.0 11.343996227 7.368097454
55 1 8.0 8.507998288 9.824200719
56 1 8.0 9.217000008 8.596200496
57 1 8.0 10.634998977 8.596200496
58 1 8.0 11.343996227 9.824200719
59 1 8.0 9.217000008 11.052200943
60 1 8.0 10.634998977 11.052200943
61 1 67.999998659 0.0 0.0
62 1 67.999998659 2.836000175 0.0
63 1 67.999998659 0.0 2.455998212
64 1 67.999998659 0.708999485 1.227995753
65 1 67.999998659 2.12700069 1.227995753
66 1 67.999998659 2.836000175 2.455998212
67 1 67.999998659 0.0 4.912097007
68 1 67.999998659 0.708999485 3.684096783
69 1 67.999998659 2.12700069 3.684096783
70 1 67.999998659 2.836000175 4.912097007
71 1 67.999998659 0.0 7.368097454
72 1 67.999998659 0.708999485 6.14009723
73 1 67.999998659 2.12700069 6.14009723
74 1 67.999998659 2.836000175 7.368097454
75 1 67.999998659 0.0 9.824200719
76 1 67.999998659 0.708999485 8.596200496
77 1 67.999998659 2.12700069 8.596200496
78 1 67.999998659 2.836000175 9.824200719
79 1 67.999998659 0.708999485 11.052200943
80 1 67.999998659 2.12700069 11.052200943
81 1 67.999998659 4.254001379 0.0
82 1 67.999998659 7.089999318 0.0
83 1 67.999998659 4.254001379 2.455998212
84 1 67.999998659 4.963000864 1.227995753
85 1 67.999998659 6.380997598 1.227995753
86 1 67.999998659 7.089999318 2.455998212
87 1 67.999998659 4.254001379 4.912097007
88 1 67.999998659 4.963000864 3.684096783
89 1 67.999998659 6.380997598 3.684096783
90 1 67.999998659 7.089999318 4.912097007
91 1 67.999998659 4.254001379 7.368097454
92 1 67.999998659 4.963000864 6.14009723
93 1 67.999998659 6.380997598 6.14009723
94 1 67.999998659 7.089999318 7.368097454
95 1 67.999998659 4.254001379 9.824200719
96 1 67.999998659 4.963000864 8.596200496
97 1 67.999998659 6.380997598 8.596200496
98 1 67.999998659 7.089999318 9.824200719
99 1 67.999998659 4.963000864 11.052200943
100 1 67.999998659 6.380997598 11.052200943
101 1 67.999998659 8.507998288 0.0
102 1 67.999998659 11.343996227 0.0
103 1 67.999998659 8.507998288 2.455998212
104 1 67.999998659 9.217000008 1.227995753
105 1 67.999998659 10.634998977 1.227995753
106 1 67.999998659 11.343996227 2.455998212
107 1 67.999998659 8.507998288 4.912097007
108 1 67.999998659 9.217000008 3.684096783
109 1 67.999998659 10.634998977 3.684096783
110 1 67.999998659 11.343996227 4.912097007
111 1 67.999998659 8.507998288 7.368097454
112 1 67.999998659 9.217000008 6.14009723
113 1 67.999998659 10.634998977 6.14009723
114 1 67.999998659 11.343996227 7.368097454
115 1 67.999998659 8.507998288 9.824200719
116 1 67.999998659 9.217000008 8.596200496
117 1 67.999998659 10.634998977 8.596200496
118 1 67.999998659 11.343996227 9.824200719
119 1 67.999998659 9.217000008 11.052200943
120 1 67.999998659 10.634998977 11.052200943
121 2 49.7531157711 0.9037683728 6.0806970237
122 2 58.3491046862 3.2000020271 4.5653119035
123 2 19.2927826336 9.5095078043 3.4530485286
124 2 19.3166737979 2.7031220936 3.7634130587
125 2 18.043249766 4.9362125367 4.5873444959
126 2 52.1954988901 7.6569208921 10.0954828247
127 2 15.3291176209 7.0432060362 2.2723678894
128 2 26.751590661 9.5427426517 1.3646015413
129 2 59.9240988279 8.67923819 5.2390245868
130 2 15.5001847473 10.5732613407 1.8870466774
131 2 28.4280157119 0.5747348849 2.3620207689
132 2 27.7127490575 5.4298068017 6.5596844252
133 2 26.8002807652 4.8570040666 9.0999284847
134 2 42.254504526 7.1265829981 1.1860076043
135 2 32.7937693443 3.1530906688 8.9640086166
136 2 53.9673758707 5.2584764814 6.2385593163
137 2 63.3001255413 1.8968035983 0.1836354044
138 2 30.7429038763 8.618362616 9.4601391057
139 2 34.1228650675 11.0670992003 3.2981102668
140 2 55.8946802554 10.7153418545 2.6821615781
141 2 61.4744180923 7.5141158419 0.8175223564
142 2 47.3372564824 6.3395358738 5.7153602137
143 2 39.2154096122 5.9248410577 7.0353235912
144 2 13.0714495206 1.7133399691 8.3782039148
145 2 41.1166721873 2.0228266228 4.5152433829
146 2 64.2502715352 3.3508942766 7.1191473094
147 2 22.1168824625 8.5980119516 8.7640529177
148 2 48.0712283349 -0.2709758218 4.4883250594
149 2 46.8662789445 4.4598477278 0.4185116176
150 2 46.9003536359 9.046958367 9.8058098234
151 2 35.6803180855 5.0668129056 1.5559775639
152 2 14.078352887 3.3925563607 6.5048357516
153 2 44.1544753831 1.5830776995 7.5982680386
154 2 36.0542110863 5.2207746232 8.2524628606
155 2 61.0700798415 2.7131384698 1.3015720697
156 2 12.3878049888 9.88727959 8.9413134228
157 2 49.7940033219 8.7770076175 2.1299488902
158 2 29.016347826 7.6785730868 11.1034019573
159 2 28.1069188078 11.6559043564 9.1300237623
160 2 24.689721187 5.8634312102 0.9830417247
161 2 34.5722128138 5.3542242962 5.9569488908
162 2 34.5012587292 2.6642931777 0.822876021
163 2 16.9992311293 2.0062232857 9.7026341679
164 2 12.178746894 4.8857330241 5.0993849059
165 2 19.6978183557 9.7199207127 9.3528965353
166 2 22.9979649907 5.9870087013 8.9805238949
167 2 22.7375374257 8.3887275486 2.7379678711
168 2 24.9244155348 11.6057039822 1.2612421511
169 2 57.1604496684 3.6732475609 8.4898399878
170 2 14.0665143014 5.7937359057 10.1988410084
171 2 40.5332084895 0.6666357872 7.8999178621
172 2 23.3448185433 4.6229605282 11.210384888
173 2 14.4991097834 8.8516370696 7.2749785954
174 2 47.8854219016 1.7604837365 2.5248870196
175 2 61.6033496716 6.2898286565 5.7855459655
176 2 49.298535822 4.0325596631 10.2151798644
177 2 44.5939930079 5.4972023321 10.8657931759
178 2 54.3745147705 6.4029587448 8.7329789667
179 2 11.6975979375 6.2088523815 8.9242600922
180 2 46.7702308115 3.7539264706 5.7759870848
181 2 64.8140268941 0.6916003104 6.8045302456
182 2 56.5122802281 9.1793861061 4.7754349407
183 2 61.5120651359 11.2645678617 1.5404554069
184 2 64.5428766192 11.8329146233 4.484269542
185 2 45.0450255932 7.377010687 4.7543987336
186 2 62.8483835242 9.7857310218 5.0492204433
187 2 17.4657789375 10.0687112666 5.4094003051
188 2 37.0695858406 3.0088667835 9.2776174331
189 2 31.3537538495 3.2676450385 4.4049650556
190 2 15.7196590276 4.2850248117 8.5773885493
191 2 35.6573421003 11.3850967218 7.6347426415
192 2 61.5253572606 3.4043321093 6.1446715462
193 2 44.4636883625 0.9381468354 3.0442200857
194 2 24.2822279525 0.1770288791 3.5900407179
195 2 34.503613773 6.4279314436 3.5413352076
196 2 25.4907142264 7.105679981 9.4452658085
197 2 60.0248532167 9.1757425251 2.4682730239
198 2 53.6385702774 6.0191872684 0.5271253917
199 2 55.6617348598 12.6143097084 9.884493698
200 2 59.7470658545 5.3406504807 4.0105268163
201 2 28.8469142814 1.0059355587 10.7494486132
202 2 49.155951902 5.4616433069 1.2967537561
203 2 64.7329113203 8.5158194609 3.433795316
204 2 38.4576475288 9.0125705988 10.6852313403
205 2 40.3899145508 10.5664941812 2.1272954543
206 2 30.3824518512 5.5901872302 5.5868639516
207 2 12.4642503929 9.2589769152 4.7449103731
208 2 62.1694815631 10.4913614592 7.4908360703
209 2 51.1605123825 7.1770439449 0.4129384796
210 2 63.3010700708 8.4546020251 8.7120822124
211 2 56.5849500414 3.661056079 11.2192640954
212 2 60.0277816295 11.2494221526 11.4865465983
213 2 12.9049931545 7.6098590772 1.064314565
214 2 34.7394677635 11.9658743908 10.1202871519
215 2 33.2882454237 7.3466019953 11.8616540314
216 2 13.9060571934 12.0753376386 9.607073223
217 2 40.1208097445 0.5736157652 2.5508062036
218 2 25.3372065617 2.8635413163 10.2103970478
219 2 38.9908538478 3.4186873962 5.8131742828
220 2 63.9967307182 6.5831750716 1.4069128123
221 2 59.5819871253 2.7382544061 11.215265551
222 2 43.5523046723 12.4024472055 9.4998643331
223 2 55.1347248239 1.8840813664 8.1675883748
224 2 56.4989308344 2.0021634345 1.3071933977
225 2 28.0296797562 9.5133086456 5.774360889
226 2 22.1682469325 2.2552377641 6.6026445442
227 2 46.0195178343 11.2013188828 5.8681603798
228 2 58.0139125988 9.54690091 10.8745782843
229 2 37.6149908263 7.7035777076 8.260686334
230 2 47.8575521716 7.2461739507 8.248622573
231 2 58.1560846918 10.4969547531 6.3905716925
232 2 58.6052339925 0.2185936339 5.5032921346
233 2 15.3840677908 2.6946327628 2.6248141832
234 2 18.0583824829 0.9703900853 5.3634680247
235 2 40.6441739265 6.3569308862 9.3046270873
236 2 48.0840945025 9.7083776205 6.4526752008
237 2 49.4461514167 0.3909415649 10.6691379486
238 2 42.9775641052 9.7486216384 2.2958819702
239 2 21.8028168758 3.6459755072 4.3389623475
240 2 43.9515834293 8.2759028733 7.1048147081
241 2 25.9318210081 3.6189321668 5.5255816131
242 2 22.4174103692 2.9827261101 1.790641195
243 2 59.1460728431 5.2032960511 10.371654558
244 2 12.7631273622 10.1237651018 2.0671297091
245 2 57.022552405 6.3201644056 7.6476654278
246 2 43.4757428822 3.0445628823 10.8671880159
247 2 26.5858525548 0.8815761331 0.3273503433
248 2 19.6407494968 2.7518957732 10.2127835711
249 2 24.3596718636 9.7956229482 7.2771743704
250 2 62.955746127 9.0103985469 11.3464449876
251 2 19.7611253971 9.1539661896 12.0299054161
252 2 49.030042532 1.6978243811 8.4479346612
253 2 21.0443559338 10.5177298502 1.7224949432
254 2 62.3429905538 2.802393407 3.5968047478
255 2 52.4451446282 10.9770802424 4.92930726
256 2 65.0190448151 2.9986495854 9.7531144012
257 2 53.9387408665 10.060215341 7.3243237587
258 2 54.1493094754 4.5525776427 10.6967347522
259 2 64.0980146842 5.7832842372 5.6106349429
260 2 27.2844104176 7.9822883269 3.6137996359
261 2 47.5107364517 1.7640820576 -0.1463000673
262 2 63.1925909932 0.4959306918 2.5913306284
263 2 46.573547122 7.6862604096 2.2342403924
264 2 52.1756308363 10.2816539813 9.3323226129
265 2 11.491239799 8.1944485037 10.7765250342
266 2 40.6491744349 7.1050517733 5.1599571519
267 2 51.8466858161 2.767024611 3.3973165121
268 2 50.4221241554 6.17833143 8.7373365952
269 2 31.9903767553 3.3608844955 1.7685107015
270 2 39.6847585962 10.3407446491 4.7037512299
271 2 54.6420590037 3.8590634089 1.9206858662
272 2 42.6619059396 2.7804331457 2.424469501
273 2 41.4012443231 2.932174814 9.0477283356
274 2 35.7148218939 8.0655274144 0.8501041756
275 2 16.3287117504 0.3949615266 1.4336691398
276 2 31.5298017582 6.0088091009 1.2401249068
277 2 50.2481496137 3.2694445747 0.4220425586
278 2 46.8795877223 4.9432681194 9.5134015603
279 2 22.1483284455 7.6211532723 0.2186602982
280 2 21.7792859961 0.321792834 4.6634667765
281 2 21.3171690286 6.4055290373 4.0599929961
282 2 51.1886047259 3.7676427076 7.7957717926
283 2 39.6948514772 8.2563405475 0.8373395649
284 2 36.3528622507 10.5869175467 11.9441322325
285 2 52.7159359962 2.2902392815 0.7991506533
286 2 37.299817557 9.4762089129 5.9230335083
287 2 26.1246694872 0.8270037451 5.4244878514
288 2 28.3090834 12.0508811361 4.7880410209
289 2 30.0422367572 2.9624117299 9.2118085604
290 2 20.8688464419 4.2529429942 8.1684961337
291 2 53.2939682475 9.9212196058 2.4735251133
292 2 39.3223736464 4.1672991719 10.3522254891
293 2 44.3224683031 4.8264494276 1.694452565
294 2 31.8825819574 7.0372721034 3.6989541973
295 2 34.759170449 1.9511085041 10.4578423646
296 2 11.760332226 5.4931918421 2.5380045182
297 2 24.7488665051 6.8068610539 3.7184726435
298 2 19.7586819939 6.1077026226 6.3938421746
299 2 64.4211054757 4.6095169197 3.2641918823
300 2 25.705926676 12.1573706987 7.6893137888
301 2 15.8359405539 10.4319743376 8.9686120932
302 2 45.507228372 8.0180821545 11.867001593
303 2 45.1351929198 0.8951983747 11.2929020149
304 2 11.3573761763 12.0587414467 0.7000704
305 2 35.6857454827 8.8652647684 3.5086695037
306 2 18.8220236159 1.7057099 1.3334564787
307 2 37.9087874265 1.3841347279 7.3698933924
308 2 18.1174548431 11.7520825409 8.4073906959
309 2 16.3583228392 6.9581940894 8.1764415807
310 2 45.0073539431 10.4250120188 8.2606764143
311 2 18.9058711491 6.7676956966 2.7793504305
312 2 52.8961517896 2.5809903009 9.451826633
313 2 15.7183118971 8.0975103772 10.5455217662
314 2 37.6831058222 1.8665341232 2.1893982205
315 2 63.9655540081 11.4626083013 10.7411557593
316 2 26.3156110039 7.7696019311 6.9264771172
317 2 55.5366915686 3.7963574475 4.5104507483
318 2 18.4761098329 8.3309680622 7.3042672374
319 2 12.2815914623 3.6657148311 10.2590373425
320 2 15.165515722 0.9298444954 11.3604817975
321 2 43.3997181286 10.6906431264 4.8294725947
322 2 32.9190212248 5.9117516396 9.3956982999
323 2 33.2233566226 9.5481253482 10.2088081035
324 2 40.661144344 9.1066649669 8.9892248289
325 2 16.1677465058 2.9446172268 5.0685601695
326 2 15.2329776587 9.080881633 4.1737086503
327 2 58.3307110434 0.4705308075 10.6126243288
328 2 56.0168583328 6.3569287275 2.6424166725
329 2 28.8596197972 4.9474031004 10.7064225736
330 2 11.2508386988 10.8525892936 6.6240987137
331 2 41.5946739694 2.0191874225 0.1608765194
332 2 52.0176670738 5.5304960836 4.2962561885
333 2 58.9814923287 1.5660153138 2.503268886
334 2 11.3530070541 7.2416195318 6.2496718319
335 2 54.8223077224 1.4373715858 5.5862508551
336 2 52.2586507981 0.8685154647 5.1744287146
337 2 30.4973106855 6.2330510957 8.2820787097
338 2 28.7517678212 2.5457277556 4.2186028241
339 2 41.7893867136 -0.5143405852 -0.5220920906
340 2 12.6917589188 2.94508428 2.124416455
341 2 29.0679192484 7.1123240875 1.6107923992
342 2 27.4177066948 5.2738162647 0.7574540149
343 2 11.7773254909 2.2585700455 4.7019986035
344 2 62.9220974469 0.1129124881 8.6809030849
345 2 29.8241488685 10.2472698149 7.6288420636
346 2 53.6006743753 7.4466842003 3.2835163297
347 2 44.1457538023 12.0049757811 0.9135037807
348 2 46.5087994852 2.6680543218 8.171055005
349 2 32.0239009953 9.7902480016 6.1199871678
350 2 28.5591050254 2.1930211602 6.9270782067
351 2 61.3261636997 6.681686028 8.4804999184
352 2 59.9152877249 10.6567112238 8.7121118387
353 2 42.7884238978 5.4862156796 4.7976668505
354 2 57.8206345192 6.8469494161 5.0062582225
355 2 30.5469502941 1.3456927749 0.7633207169
356 2 17.0492982442 8.6508603085 0.5998520768
357 2 57.4710439382 9.2130316578 1.177629922
358 2 22.1316151691 8.8464622001 6.1253113286
359 2 38.8666978034 6.9125286516 3.1497516197
360 2 21.1931582232 0.4814439304 1.9581810191
361 2 50.2268164267 9.3587217138 4.8059469873
362 2 24.9557638731 2.2639575654 1.937857587
363 2 59.217912743 2.2024947952 7.1758696442
364 2 49.0366030798 2.9979168788 4.6348320533
365 2 23.8164021022 1.2877277079 8.470628872
366 2 29.5762204972 9.8349460945 1.6700458646
367 2 20.3645453189 10.8851641906 5.524217771
368 2 51.2753112016 7.4350525529 6.3597619384
369 2 58.9180970576 8.0124671855 8.8227941989
370 2 56.4382965425 10.477756944 8.5628215001
371 2 11.0725058478 0.6620824772 6.901078029
372 2 43.2580798071 6.1524868292 8.61154129
373 2 35.1232882867 8.8544655832 8.3671797409
374 2 43.2216005163 0.5436698034 5.3317606267
375 2 54.4096227954 7.9403022537 5.7160422464
376 2 33.3979231739 2.8877573142 6.3470446229
377 2 21.0743926841 5.3808634327 1.3795310865
378 2 61.0655653377 2.0197775131 9.0935886838
379 2 33.2675187487 7.477373485 7.0834616751
380 2 33.7703914857 11.8781357039 5.8767903435
381 2 39.4912761612 3.4915427282 0.6660586327
382 2 42.8732839655 3.9560096787 7.0553082862
383 2 57.5769311718 5.8161700832 0.3318044339
384 2 63.9518475979 4.4298509363 11.7158222193
385 2 37.4672442353 4.708937154 3.7690664194
386 2 65.0689829743 10.6551287519 8.2124140016
387 2 55.0110990499 8.2748785339 0.1555583736
388 2 40.8969125336 5.1008581742 2.5115905803
389 2 64.0127471135 10.1828762839 1.26377452
390 2 45.8166688364 3.2612435986 3.3821054182
391 2 60.0702136064 5.2813896533 1.3533929328
392 2 52.1910587786 0.4218426399 10.9574698763
393 2 12.649004942 1.6009576762 12.0892175513
394 2 26.8167390369 3.8900834365 2.9279300257
395 2 31.0503152112 0.2939977654 4.9472481471
396 2 23.9101470435 5.3116676141 5.9010352635
397 2 24.9150348901 8.5879056715 11.6277152229
398 2 31.6611573318 9.7666951788 3.3898769181
399 2 41.581539406 9.2038750342 6.5147415824
400 2 35.5785249452 0.1869001669 1.613132283
401 2 62.2322835657 4.3270429509 9.4793178893
402 2 56.404324615 0.3968308589 3.6735488127
403 2 49.3655221645 5.5487880125 4.0108263973
404 3 49.1307453713 0.3305026463 5.5040056424
405 3 50.7096813098 0.7293687213 5.85779063
406 3 58.5770420653 2.8284070104 5.4450943989
407 3 58.5988433557 2.5061006101 3.8843790028
408 3 19.8828931556 9.9231384362 2.7473600894
409 3 19.1660747467 8.560493671 3.2093523807
410 3 20.2509759638 2.9573496375 4.0220400453
411 3 19.0022381791 1.9572255107 4.3589806632
412 3 18.5997738544 5.3217926376 5.3275234635
413 3 18.5475184464 4.1258483322 4.2706357053
414 3 51.8742404451 7.5538996439 11.0331066375
415 3 52.14810497 8.6362746457 9.8805377037
416 3 15.373152324 6.1020124773 2.5165643403
417 3 14.4908116654 7.1598080676 1.7406457291
418 3 26.7976066086 9.0492573668 2.2265748277
419 3 26.0909796591 10.271538054 1.4816721954
420 3 59.4986865877 9.3885840731 5.8001858024
421 3 59.1990538614 7.9974315436 5.2033456656
422 3 15.8721188131 11.500176945 1.8503717812
423 3 15.5386529402 10.235955866 2.8229948231
424 3 28.3673583272 -0.1859425706 2.9969909995
425 3 28.4858760207 1.3365219959 3.0080232151
426 3 27.1052020748 4.7691152248 6.116789795
427 3 27.210339572 6.2969192906 6.554353275
428 3 26.3005796255 5.7171645943 9.3167269831
429 3 27.154687625 4.9881013481 8.1714462465
430 3 42.6071953372 7.8753964473 1.7235183166
431 3 41.849949185 6.4483102073 1.7888277429
432 3 32.9662668268 4.1183064471 9.1417605985
433 3 32.9823333373 3.0262638614 7.9802228987
434 3 53.1795175955 5.2822462535 5.6355266303
435 3 54.650782901 4.7568831099 5.7171681292
436 3 63.6300928599 1.4606537237 1.0065331617
437 3 63.704867182 2.8045920496 0.110308978
438 3 31.6167890011 8.9834243658 9.7700306969
439 3 30.1484985741 8.3645963609 10.2518529453
440 3 34.0563219678 11.435764366 4.2240068828
441 3 33.231927711 10.6463224911 3.1441343499
442 3 56.1075787427 10.1324534966 3.4687880742
443 3 56.043782846 11.6502036605 3.0103100608
444 3 60.9605998698 6.6562235763 0.8636431344
445 3 60.9941885939 8.1055908494 1.4627974691
446 3 47.0965794364 5.3701906098 5.8536915552
447 3 47.5167973208 6.7113508597 6.6237888527
448 3 39.758047785 6.3497380781 6.2886510023
449 3 39.0626450693 4.982525275 6.7505136595
450 3 12.807426313 2.3655422392 9.0786898394
451 3 13.4964499524 2.2790454491 7.6690480039
452 3 40.6460997391 1.3933257346 3.8825577947
453 3 40.4288094464 2.5072041503 5.0331189482
454 3 63.2729616691 3.2846709074 7.0060317054
455 3 64.585188114 2.4561711033 6.8213380898
456 3 22.0022472242 8.5930565519 7.7538135324
457 3 22.9571409703 9.0999073308 8.8472652571
458 3 47.2212942308 12.1543181632 4.8708075086
459 3 47.8631150196 0.329682511 3.7311356956
460 3 47.0583425497 3.5229749674 0.1642623899
461 3 45.9386276442 4.5064431002 0.7532251356
462 3 46.2441212676 9.6023015728 9.3121011905
463 3 46.4130050773 8.6784473459 10.6070155454
464 3 35.2745548964 4.2185615879 1.2102830048
465 3 36.4236966924 4.779273237 2.1344841191
466 3 14.8976740149 3.2212117156 5.9109811185
467 3 13.5060014848 4.0524933016 6.0305463299
468 3 45.0771265485 1.8615633788 7.8792917701
469 3 43.8021426513 0.9747385787 8.2986934793
470 3 35.6758901064 5.2729060234 7.3378828958
471 3 36.5710847793 6.0441844785 8.3903060514
472 3 61.4634078468 2.8675571658 2.2248051602
473 3 61.8782268114 2.3574928059 0.7782825322
474 3 12.8541349622 10.7089923321 9.2730837162
475 3 11.8634329391 10.1991411137 8.1521061677
476 3 49.9649675181 8.9827253335 3.089663654
477 3 48.8348215177 8.6009786335 2.0722431744
478 3 28.9987772462 7.772148889 12.0849391753
479 3 29.036455308 6.6943461227 10.9587358116
480 3 28.7993884637 11.2719960177 8.506578215
481 3 27.8819132255 10.9202283785 9.7299652233
482 3 25.6431693141 5.7171368293 0.7735263008
483 3 24.6674604171 6.0465728202 1.9546267738
484 3 34.0184479412 6.0773069509 6.3613659216
485 3 34.6347423385 5.6612955685 5.002306383
486 3 34.5117902217 2.4800481112 12.1185845779
487 3 33.5609719112 2.8695702819 1.091265429
488 3 17.9309945494 2.283429183 9.9171601077
489 3 16.588739116 2.7900674032 9.2525036571
490 3 11.8529185833 5.6716348797 5.6116486143
491 3 12.1159506717 5.1905517001 4.1351376793
492 3 20.6463968629 9.4502528712 9.18418184
493 3 19.1883620846 9.1692351498 8.6898301344
494 3 23.0719263379 5.5495558593 9.8987981325
495 3 22.5384001385 6.8661731956 9.0740396798
496 3 22.5710032699 8.1032674762 1.7831480568
497 3 22.3377248401 9.2836805019 2.7573872713
498 3 24.27572284 11.2355364368 0.6332933467
499 3 25.4643735886 12.2860999393 0.7638218459
500 3 57.9283523501 3.1573525652 8.1309590429
501 3 57.1997264281 3.6500176937 9.4863267667
502 3 13.3148338671 6.0854904081 9.6089632423
503 3 14.5473087061 6.6195804545 10.4639376362
504 3 39.55847412 0.7470455876 7.7335345575
505 3 40.71921129 12.5099069008 8.1563546531
506 3 23.7416542153 5.0696092485 12.0060452663
507 3 24.0008065713 3.9320911327 10.9523960743
508 3 13.7237009519 8.9610090555 7.8754589838
509 3 14.9656932894 8.0147020034 7.5235983961
510 3 47.7798268631 1.5996484706 1.5437709865
511 3 47.1385928399 2.3851817297 2.7450454313
512 3 62.6465663517 6.1702143455 5.6831893194
513 3 61.3373999007 7.2223842273 5.6043974254
514 3 49.6481764792 3.7301390956 11.0941877585
515 3 49.7926466976 4.8440277662 9.9523953976
516 3 45.5048026724 5.2783249956 10.5146356422
517 3 44.111611144 5.8331291018 10.0568265876
518 3 53.6866201574 6.9854591487 9.149156094
519 3 53.9866631898 5.9942585561 7.9188785863
520 3 11.4377847811 6.9223824153 9.5719713158
521 3 11.6238061905 6.6108436998 8.025582232
522 3 47.6360627078 3.386612887 5.4181144948
523 3 46.6186872896 3.3080326052 6.6672791946
524 3 64.0779991005 0.4825284881 7.4443595236
525 3 64.6381060007 0.1828881621 5.976829079
526 3 57.0936935584 8.392695749 4.6330671705
527 3 55.710159999 8.7549016376 5.2225964433
528 3 62.3892631514 10.8027510058 1.3872729919
529 3 61.0413081093 11.3105029621 0.6549940391
530 3 65.4205973486 11.4485292013 4.2993238281
531 3 63.9237544654 11.0612361207 4.6543803827
532 3 44.3898917641 6.6446400122 4.6532979614
533 3 45.890731543 6.9644350049 5.1163602256
534 3 62.0002977894 9.6910501018 4.5770441276
535 3 62.5774005508 10.0279048552 6.0017128831
536 3 18.005646904 9.930174916 4.5904538727
537 3 16.5776447697 9.7088017379 5.1462187706
538 3 36.6678936671 3.8288546891 8.8349837208
539 3 37.878545636 3.3893067529 9.7325950975
540 3 31.0844535189 4.1463696591 4.8009071181
541 3 31.6627864137 3.3985947486 3.4521415348
542 3 15.1224191911 4.73122123 9.2399342841
543 3 15.1116883435 4.0177449972 7.8358869518
544 3 35.4190881835 11.7695861654 8.5339041881
545 3 35.4577815618 10.4146128705 7.8129522934
546 3 60.6768297858 2.9922037875 6.4646591868
547 3 61.3867290726 4.3753108178 6.1590383526
548 3 44.0826543232 0.7506051036 3.9594601097
549 3 45.1004425318 1.6924004405 3.1765516708
550 3 23.3606432759 0.1236581444 3.9801568708
551 3 24.3668665475 12.2896771771 2.8453064776
552 3 34.9424317261 7.3299463151 3.5539779069
553 3 34.8366411349 5.9278586379 2.7269893197
554 3 24.5796733245 6.7552672035 9.226478771
555 3 25.3789295904 7.645339826 10.2926827984
556 3 60.5078980083 10.0283901939 2.2556553028
557 3 59.9766279564 9.0809194311 3.4571434895
558 3 52.7116540857 6.3738974596 0.6424118538
559 3 54.2024779697 6.8448399987 0.4094285212
560 3 56.4616378966 0.1210853963 10.3920157868
561 3 55.487730599 0.6096207758 9.2580346375
562 3 60.5237761713 5.5524948937 4.5975579547
563 3 59.3526871899 4.4461646654 4.2696069041
564 3 28.6590285007 0.222064059 10.162077694
565 3 28.0293547721 1.1153376202 11.2897374417
566 3 48.2314957552 5.1710369883 1.0154556297
567 3 49.1695203601 5.5642767633 2.2909698816
568 3 65.5813558782 8.3113448424 3.8686995529
569 3 64.0959429161 8.741141609 4.1584084045
570 3 37.8326227338 9.6880793815 11.0375267313
571 3 38.9105321666 8.6452717345 11.4967429098
572 3 41.3707386245 10.3350111927 2.16433945
573 3 40.0696644403 10.4114326584 3.0688779562
574 3 29.3916370579 5.5307467306 5.6748743046
575 3 30.6277487316 5.8198570198 6.5234376036
576 3 12.3992978969 9.5948203777 3.8117233833
577 3 12.1455928156 9.9883308907 5.3432925876
578 3 62.5547027089 11.3550067543 7.8103007141
579 3 61.2197826824 10.5179040602 7.8891434214
580 3 50.418629787 6.5262804543 0.513265935
581 3 50.8444523303 7.8957377504 1.039597502
582 3 62.9275472792 9.294986845 8.2637446775
583 3 64.2297073046 8.4227557245 8.4146094111
584 3 55.6228239933 3.9316817071 11.0628649681
585 3 56.5651611053 2.8921634238 11.8394069979
586 3 59.3263463384 10.5304601652 11.4132107855
587 3 59.4820475887 12.0659564552 11.3208754766
588 3 12.7769495515 8.5478327459 1.404490559
589 3 12.6406254206 7.6580947511 0.116583195
590 3 35.3452062294 11.5342752489 10.7781417354
591 3 34.7182666881 0.182033986 10.3260509286
592 3 33.1564446371 8.2304688277 11.4235852471
593 3 34.1219172168 7.4841182269 0.1019688047
594 3 14.7009817159 11.5488037216 9.2561493655
595 3 13.7267375662 0.0906217155 9.0189516987
596 3 40.1738639427 12.3564372075 2.4050006524
597 3 39.1870361473 0.8630010803 2.4146572737
598 3 25.8881442243 2.3282903123 10.8117773352
599 3 25.9364044712 3.5293822721 9.7643466068
600 3 38.4371425211 3.7420397469 5.0597665517
601 3 38.4956595499 2.6775977814 6.2566265518
602 3 63.0732941947 6.9255934174 1.2381528909
603 3 64.3732578191 7.2236532463 2.053711943
604 3 59.4308289433 3.6966773398 10.9213963441
605 3 60.0136884118 2.76842352 12.0983715239
606 3 42.7879777129 12.233853762 10.1051981498
607 3 44.248089331 0.0168208153 10.1176594629
608 3 55.8162252938 2.6052392762 8.283294549
609 3 54.2775220149 2.1984128022 8.5921349901
610 3 56.0092834562 2.8289815612 1.5753609884
611 3 57.4324682453 2.0595812724 1.6177697683
612 3 27.9821333344 10.4380498448 5.3983361078
613 3 28.746432427 9.6142617407 6.4686651472
614 3 21.6008449186 2.8645592386 7.1469660132
615 3 22.8660235041 1.9137466257 7.2491231499
616 3 45.2745132924 10.8054631155 5.3566547997
617 3 46.7461353049 10.5076800229 5.9943689212
618 3 58.3351722709 8.7390244675 10.4089660472
619 3 57.7078852831 9.3094530093 11.7979148937
620 3 38.0325060675 8.0437668326 9.0948641348
621 3 38.2371745718 7.0375691044 7.8310215637
622 3 48.7836376465 7.013971817 8.5055506093
623 3 47.485336385 7.9691688637 8.9105191403
624 3 57.6902641812 10.5427186436 7.2743694094
625 3 57.4648294905 10.0821532821 5.7910993537
626 3 58.4734750009 12.0499965572 5.8666827891
627 3 57.8291327864 0.3546201321 4.9050496625
628 3 14.4090452011 2.785092357 2.4468489986
629 3 15.6760987923 1.8364014006 2.2096448752
630 3 17.7794070561 0.0363182071 5.367515998
631 3 17.2396455056 1.53482561 5.3774004367
632 3 40.2173801575 6.1251013621 8.4326395156
633 3 41.627249781 6.233735086 9.1439349917
634 3 48.0762090493 8.8855814471 6.9841199701
635 3 48.832842178 9.6310991422 5.7931583622
636 3 49.0413928654 -0.4950923186 10.6263573449
637 3 49.2963089353 0.8223569295 9.753545535
638 3 43.1971367462 10.0481361364 3.2268602757
639 3 43.5689542935 10.2922005258 1.7188876391
640 3 22.1843677472 3.251607223 5.1757273657
641 3 21.8335015787 4.6294336188 4.4318211958
642 3 44.3908352153 9.0720388891 7.5581919314
643 3 44.4395419865 8.0573488177 6.2532162161
644 3 26.1078794288 3.8401020633 4.5693535075
645 3 25.1064403791 4.1547589303 5.7623739165
646 3 22.0203225821 2.076099408 1.6901527667
647 3 22.2850221559 3.1953022383 2.7605868154
648 3 58.640337918 5.7318992717 11.0349248903
649 3 59.8784571224 5.7492593416 10.037551071
650 3 12.2373084104 10.8219919266 1.584158484
651 3 13.7198355966 10.3888064306 1.9508375755
652 3 57.1439415162 5.3805789903 7.9671422269
653 3 56.1291699594 6.5685704181 7.998532088
654 3 43.8714401309 3.9731664536 10.9366792745
655 3 42.8716947058 3.0286548331 10.0749786928
656 3 25.9449560818 1.5067912943 0.7863657002
657 3 27.2733723887 0.7304530847 1.0396322469
658 3 20.2939836258 2.0301363691 10.2386779141
659 3 20.0119594352 3.3783740834 9.529075461