# LAMMPS data file written by OVITO Basic 3.5.2
411 atoms
3 atom types
0.0 42.0 xlo xhi
0.0 12.762 ylo yhi
0.0 12.2802 zlo zhi

Masses

1 12.0110  # C
2 16.0000  # O
3 1.00000  # H

Atoms  # atomic

1 1 8.0 0.0 0.0
2 1 8.0 2.836 0.0
3 1 8.0 0.0 2.456
4 1 8.0 0.709 1.228
5 1 8.0 2.127 1.228
6 1 8.0 2.836 2.456
7 1 8.0 0.0 4.9121
8 1 8.0 0.709 3.6841
9 1 8.0 2.127 3.6841
10 1 8.0 2.836 4.9121
11 1 8.0 0.0 7.3681
12 1 8.0 0.709 6.1401
13 1 8.0 2.127 6.1401
14 1 8.0 2.836 7.3681
15 1 8.0 0.0 9.8242
16 1 8.0 0.709 8.5962
17 1 8.0 2.127 8.5962
18 1 8.0 2.836 9.8242
19 1 8.0 0.709 11.0522
20 1 8.0 2.127 11.0522
21 1 8.0 4.254 0.0
22 1 8.0 7.09 0.0
23 1 8.0 4.254 2.456
24 1 8.0 4.963 1.228
25 1 8.0 6.381 1.228
26 1 8.0 7.09 2.456
27 1 8.0 4.254 4.9121
28 1 8.0 4.963 3.6841
29 1 8.0 6.381 3.6841
30 1 8.0 7.09 4.9121
31 1 8.0 4.254 7.3681
32 1 8.0 4.963 6.1401
33 1 8.0 6.381 6.1401
34 1 8.0 7.09 7.3681
35 1 8.0 4.254 9.8242
36 1 8.0 4.963 8.5962
37 1 8.0 6.381 8.5962
38 1 8.0 7.09 9.8242
39 1 8.0 4.963 11.0522
40 1 8.0 6.381 11.0522
41 1 8.0 8.508 0.0
42 1 8.0 11.344 0.0
43 1 8.0 8.508 2.456
44 1 8.0 9.217 1.228
45 1 8.0 10.635 1.228
46 1 8.0 11.344 2.456
47 1 8.0 8.508 4.9121
48 1 8.0 9.217 3.6841
49 1 8.0 10.635 3.6841
50 1 8.0 11.344 4.9121
51 1 8.0 8.508 7.3681
52 1 8.0 9.217 6.1401
53 1 8.0 10.635 6.1401
54 1 8.0 11.344 7.3681
55 1 8.0 8.508 9.8242
56 1 8.0 9.217 8.5962
57 1 8.0 10.635 8.5962
58 1 8.0 11.344 9.8242
59 1 8.0 9.217 11.0522
60 1 8.0 10.635 11.0522
61 2 16.8077195167 6.6952835637 1.0625108209
62 2 30.99494933 4.6321717489 10.4704687439
63 2 17.2123635592 7.4148267808 10.8699588218
64 2 22.2593400043 10.3569357569 8.6035323065
65 2 13.7912300748 2.6657081251 9.7442598555
66 2 26.2309212539 4.9369908458 1.7364401932
67 2 23.1153154279 7.91475944 0.474412408
68 2 26.3647729477 3.7594745493 5.8714695545
69 2 25.0956972821 7.215885609 4.240357517
70 2 11.9500256474 12.5661814089 11.368040957
71 2 31.8341656673 7.1698124297 10.4351975103
72 2 18.4548768973 11.3239493799 9.9960392116
73 2 23.9787703376 1.9892370344 8.5899405065
74 2 20.7657463402 10.6983540652 1.115117585
75 2 11.8543526823 9.0786214306 7.9743551156
76 2 23.9763992998 6.5675877048 8.4275920445
77 2 30.5520278668 3.8941032032 7.9416464388
78 2 18.8924048869 12.4240458957 5.3653948741
79 2 28.0016676357 8.9302757575 8.0080730117
80 2 18.0298493449 10.5734484454 2.0228209286
81 2 11.8774413286 3.4060820302 1.58497483
82 2 18.3521247066 8.0579989245 2.8232243356
83 2 14.5802537624 0.8689803993 11.8368152317
84 2 31.5622946595 0.1331435508 10.7269162546
85 2 24.1742915387 10.4615468849 12.226936394
86 2 22.1288119929 8.0942430096 7.0024238412
87 2 16.5683360535 5.1980326842 9.4872868311
88 2 29.1123354267 9.3494562601 5.5892581245
89 2 18.8830626087 3.7598002354 3.0670017838
90 2 19.6523210961 5.1935220382 5.2262934035
91 2 23.0053465064 11.4518028467 5.5968508699
92 2 24.0647748476 4.3083970465 7.1122915602
93 2 30.5177912274 10.6849347463 12.0469900765
94 2 21.158224368 4.1724629893 7.4088543499
95 2 29.7313601001 7.5093754633 1.6691513427
96 2 15.2285433895 10.0025071085 7.5401703489
97 2 26.3116595419 10.1293449158 1.5738466212
98 2 26.0665950017 1.876373393 3.9490931211
99 2 23.0885409942 5.9234190869 10.8945766178
100 2 30.3033544185 2.3561375847 11.812592469
101 2 11.8680680355 1.0544954199 8.7882927162
102 2 27.6091058274 1.3348300281 1.7673959122
103 2 20.5897686546 9.839581866 10.7579805379
104 2 30.4172020199 4.2366524366 3.646823376
105 2 20.6667387272 5.2012324879 9.9047748083
106 2 20.5129939857 10.35168125 5.2371153105
107 2 11.5683311736 0.2783563305 4.2323178422
108 2 32.0791274466 8.4847258413 0.441365673
109 2 26.6628430213 12.6984445367 5.6531700028
110 2 29.6138153811 7.0377714148 4.263177705
111 2 19.8115502421 0.7955668422 10.741738663
112 2 23.4819859477 5.1285703901 4.5967461519
113 2 17.6815494574 11.0903969318 7.4223838731
114 2 13.8692607171 12.3647584688 7.640024528
115 2 16.171063544 9.8169669964 10.4455066408
116 2 11.6407683934 2.2698923163 6.142033633
117 2 24.6573313884 3.9785429041 11.9516844024
118 2 14.5279723216 10.5629991594 3.0540476188
119 2 16.7691853219 1.3017077741 10.3746447926
120 2 32.6750954006 7.6878228309 7.8418455098
121 2 22.5397353831 2.8641760165 0.9485481923
122 2 19.0928376283 8.8161552639 7.0997649156
123 2 19.5971932091 7.6116172161 9.6364594813
124 2 20.9283469046 7.396780384 2.1559788417
125 2 27.9376656214 3.0138855967 7.9245425643
126 2 25.4052141068 8.8220377728 8.1251032859
127 2 21.5574754187 6.9341197382 4.6924752274
128 2 28.7102014408 11.5055805478 1.5425267667
129 2 14.1776526982 0.6114957011 3.790866052
130 2 27.8058028087 1.3376903703 11.3362525776
131 2 31.172908606 9.9784793497 7.4035736733
132 2 20.9636249423 0.6167893837 0.8823342406
133 2 14.3702842662 2.3535127507 1.7678730148
134 2 24.8699878894 9.4716518375 5.5538701322
135 2 20.607941414 4.9067238406 1.1301483012
136 2 18.6828242462 3.3205306747 9.9089296416
137 2 14.1711545699 2.8578669456 5.6127978205
138 2 26.9593973609 10.431366895 4.2648288321
139 2 11.153224219 6.575399381 6.8318178799
140 2 17.7904747184 7.1456483928 5.5109964936
141 2 15.6642187433 11.0906846199 0.5565096189
142 2 29.9868134688 9.1713570976 9.8197668104
143 2 11.4094444488 8.4009866818 0.1408405013
144 2 25.3718897468 10.9725958103 9.6736550573
145 2 20.5847742816 1.6300938549 6.6889189029
146 2 23.6382619923 2.7625958634 3.4173331328
147 2 13.9836491905 5.2829052096 10.2525538494
148 2 15.4783169499 1.9275134761 7.722530502
149 2 12.5949324479 5.690336694 2.8656305693
150 2 11.8619260766 7.8020373278 4.4698957073
151 2 28.9792024992 5.6296151673 12.0338492398
152 2 14.7663697247 5.5950854148 4.4174881645
153 2 27.851081036 11.6079746942 10.2588649982
154 2 30.7496004245 6.3325400621 6.6935105519
155 2 11.0203555918 12.1870468542 1.7524842658
156 2 12.514201881 5.8368000416 0.1661100817
157 2 26.1749340198 2.8633211627 9.8603225519
158 2 28.8809244802 3.690073759 1.629156752
159 2 19.6217648926 1.1488569201 3.1254876006
160 2 30.0933353467 12.1624963882 8.660761466
161 2 12.1857875287 11.0356970136 5.8736746761
162 2 14.5255570718 8.4709823791 5.1025652946
163 2 12.0059362873 9.7084158127 2.4647146327
164 2 27.2854939603 6.1176868962 5.2531178797
165 2 11.2781977833 10.0617310293 10.4599225881
166 2 13.5181408817 6.8625423324 8.1002520193
167 2 30.8082109319 2.3962137695 5.532364059
168 2 21.7895873303 0.4927286041 8.8365733415
169 2 28.3315640367 6.3681557985 7.7357475661
170 2 24.7316036608 12.401392309 7.480099516
171 2 27.057809854 5.6738493857 10.1453225971
172 2 28.9061369901 0.8626151124 6.8061632183
173 2 25.6251535661 7.5128470482 1.65290783
174 2 18.0857213161 2.8094316606 7.411725047
175 2 15.9149228007 6.0440556797 7.0298015497
176 2 21.9689989321 1.0146107524 4.513659577
177 2 16.2218340992 4.2823064976 2.454034441
178 3 16.5890217969 5.8038104285 1.4256382686
179 3 17.3530535232 7.1619327104 1.75596649
180 3 30.919907039 3.7761085642 10.9765283843
181 3 30.8335365425 4.3668462915 9.5112546655
182 3 16.9116724222 6.6332675618 10.3277311254
183 3 17.0904233567 7.1214518266 11.8379045902
184 3 21.7636748489 10.1481440417 9.4332889489
185 3 22.1727062417 11.3338178537 8.5226340569
186 3 13.7616174028 3.6458810022 9.9647255192
187 3 13.9985561041 2.162862127 10.5719657589
188 3 25.7444945493 4.5006489772 0.9916629333
189 3 27.1142482808 4.5041662918 1.7932826639
190 3 22.3087545393 7.8971754675 1.0543475936
191 3 23.318391508 8.8569761484 0.2338654783
192 3 26.7542933001 4.6155403369 5.5045599828
193 3 26.326695372 3.1106636551 5.1090146826
194 3 24.5069158995 6.4056888123 4.2962929583
195 3 25.2678713199 7.3736382054 3.2584624901
196 3 12.9092443267 0.0154082927 11.4606974586
197 3 11.8748799287 11.6201689256 11.0604613422
198 3 31.6310429308 6.1903453029 10.5036743065
199 3 32.3165987498 7.3075869294 9.5795388977
200 3 17.6302040317 10.8676921413 10.3229328752
201 3 18.2862044139 11.3495005681 9.0102042259
202 3 23.0976274143 1.5557445432 8.8113831246
203 3 23.8311153553 2.8172368509 8.06080059
204 3 21.0680253109 10.325288951 1.9630053243
205 3 20.9601220514 11.6832257859 1.1166835032
206 3 11.1842311816 8.3927543157 7.767863516
207 3 11.6255991023 9.4396731657 8.8799173277
208 3 23.7255391168 6.3978089482 9.3805370565
209 3 24.6160513386 7.3396242279 8.4159206262
210 3 29.5703074297 3.7062529335 7.9336820746
211 3 30.6740558685 4.7153809516 7.4006139175
212 3 19.524910811 11.6238661384 5.2696757271
213 3 19.3962679062 0.3022861038 5.9155365637
214 3 28.494897957 9.1099569296 8.8506198998
215 3 26.9963883074 8.9498258966 8.1409085049
216 3 17.2808430462 10.8325146518 1.4318827716
217 3 18.8714817903 10.7241072461 1.5369850151
218 3 12.7779514253 2.9615534776 1.6390524053
219 3 11.2084548368 2.7024287929 1.6474314875
220 3 18.1253488358 7.8685607315 3.7698935377
221 3 18.1465870424 9.0248632298 2.6234473739
222 3 14.5780159373 1.4457351532 0.3824317926
223 3 15.4483915377 1.0297808958 11.3624534954
224 3 31.257546822 0.943752995 11.2030826913
225 3 31.290503322 12.1388306291 11.3059760122
226 3 23.597036451 11.1802934504 0.2593681343
227 3 24.972635736 10.4488702821 0.5624043025
228 3 22.1395175949 8.9778327637 7.4553797817
229 3 22.7307704484 7.5185679468 7.5370061386
230 3 16.4615482903 5.3722102424 8.5058147026
231 3 17.2870406685 4.5339127021 9.6331565494
232 3 28.4266468743 9.8117840797 5.0328214011
233 3 28.6504134414 9.1998889617 6.4658481054
234 3 19.4233769328 4.1559698954 2.333742562
235 3 19.1750481608 4.2493849592 3.896700509
236 3 20.3672729424 5.8793353051 4.9993652099
237 3 20.0108542792 4.7631156099 6.0412658026
238 3 22.7373390997 12.2520653589 5.0734298091
239 3 23.5169064579 11.8043644443 6.3797041168
240 3 24.1820545175 5.1678034429 7.6430885618
241 3 24.9569950576 4.0780782364 6.6900140305
242 3 31.1597795619 10.0154213522 0.1157987714
243 3 30.1500148792 10.2396770981 11.2316253638
244 3 20.9986771892 4.5749952389 8.3148721429
245 3 22.117943033 4.2848790319 7.2256638283
246 3 30.6031675993 7.8159747807 1.3244078381
247 3 29.3962126518 6.8699480296 0.9852474311
248 3 14.6080853416 10.7782472732 7.5912963023
249 3 14.9513096056 9.4671015553 6.7523981094
250 3 27.1930017422 10.50393847 1.3075269525
251 3 26.3361165222 9.1346886315 1.5052849874
252 3 26.2137907101 1.0979355815 4.575535073
253 3 26.6465968872 1.6932531756 3.1555353862
254 3 23.0710323315 6.6880198029 11.5379870016
255 3 23.7074869331 5.2401728326 11.2846946163
256 3 30.095081279 2.7051665704 0.4311723835
257 3 29.4073235578 2.0459151746 11.490964475
258 3 11.5891678468 0.6045527553 9.6240216994
259 3 12.4698213531 1.7766647421 9.1266095953
260 3 28.2077112145 2.137395252 1.7542357501
261 3 28.1543265681 0.5069118851 1.7932306247
262 3 20.7371493232 10.0180675528 11.7190828777
263 3 19.8028645025 10.399385997 10.488550435
264 3 30.5196990114 3.5386883624 4.3708603186
265 3 30.1870634625 5.0819588885 4.0758811291
266 3 20.2728450634 6.1306227678 9.779508208
267 3 21.5624979751 5.3682703516 10.3248461412
268 3 20.1909057929 9.7022051765 5.9125583676
269 3 21.4182084238 10.6375563922 5.5287967685
270 3 11.5864199115 12.1974754384 4.772270121
271 3 11.2702046584 0.0448801642 3.3029899188
272 3 32.1237994932 7.9670031416 11.8571261681
273 3 32.9631805387 8.4465031099 0.8412280935
274 3 25.9642305156 12.515564594 6.3533240922
275 3 26.7714292513 11.8706317899 5.0989320935
276 3 29.6980826926 7.194508458 3.2626052087
277 3 29.4498401926 7.9315321833 4.6926930916
278 3 19.3917170592 1.6603335568 10.5064305532
279 3 19.1471473598 0.0765456774 10.5276916715
280 3 23.6345479852 4.8424848719 5.5402013972
281 3 23.5484760003 4.279103246 4.05729342
282 3 16.738845609 10.7545436844 7.3440624322
283 3 17.9350491241 11.6192210509 6.6148380815
284 3 13.101231519 0.0308959962 8.1214090587
285 3 14.5443364288 0.3244380867 7.5721662748
286 3 16.5005789965 8.8708453933 10.5854850687
287 3 15.7052393799 9.813511903 9.5801554211
288 3 11.4389317164 1.5919693003 5.4434932584
289 3 11.5138954474 1.8132875517 7.0049147964
290 3 23.9464527657 3.369466343 0.0088724534
291 3 25.1769417943 3.5262634375 11.2441931495
292 3 14.968520278 10.6489420259 2.1674833212
293 3 14.5269520256 11.4763034491 3.4291261203
294 3 16.5576902005 1.1954075318 9.4266948976
295 3 17.2945653642 2.1305231078 10.4278008995
296 3 31.9776775642 7.1261101206 7.3581806765
297 3 33.542046632 7.4248849514 7.4901104798
298 3 21.8884056259 3.6134249568 1.0102944662
299 3 21.9991790518 2.0247618596 0.8718965674
300 3 19.3662530925 8.3871511669 7.9520514586
301 3 18.5522162957 9.6262907756 7.3244235433
302 3 20.0908812565 8.3419644439 10.1109177978
303 3 18.726330502 7.5591657034 10.1355125312
304 3 19.9819308931 7.7004993882 2.2970254652
305 3 21.2604712016 7.3274428308 3.1049021721
306 3 28.2871675554 2.1192995627 7.5816598759
307 3 27.3955400707 3.3408239205 7.1460757188
308 3 25.1149891828 9.1110362594 7.2102311243
309 3 25.2239639298 9.5911622583 8.7485741612
310 3 22.295956127 6.2580222433 4.6387137011
311 3 21.7490304233 7.5019775712 5.5073636288
312 3 29.0647910344 11.1647660192 2.3830634948
313 3 29.3812935971 11.212074286 0.841188719
314 3 13.1824794024 0.4877838445 3.9418510313
315 3 14.430764267 1.2482819695 4.4992286942
316 3 27.1290844898 1.8798032208 10.836469091
317 3 27.5318415325 1.3277261566 0.0132260668
318 3 30.5883386103 9.8174410339 6.621530957
319 3 31.8813809795 9.2901625131 7.4031409625
320 3 20.333151715 0.809203507 1.6386273823
321 3 20.4514598108 0.7030565801 0.0227492486
322 3 15.074831776 3.0258978104 2.0034478612
323 3 14.3389805635 1.682728862 2.5234915336
324 3 24.0989690063 10.0817472797 5.4001903601
325 3 24.7298853181 8.6042971729 5.0653598894
326 3 20.7700468925 5.8308893117 1.512694851
327 3 20.3032129544 5.0610632046 0.2150588831
328 3 18.5913787242 3.1235308915 8.9169519605
329 3 19.4334580544 3.9724779134 10.011291959
330 3 13.1869000939 2.7223809237 5.8300311549
331 3 14.2911106041 3.7633429165 5.2551804514
332 3 26.706388813 10.3730565541 3.3029292251
333 3 26.1753742252 10.016786018 4.7556744556
334 3 12.0471762542 6.4044586433 7.2375425229
335 3 10.6470948207 5.7452105142 6.8567609996
336 3 18.4205568621 6.3700484807 5.454884876
337 3 18.2684219917 7.8014021434 6.1147176412
338 3 15.3017290297 11.9688032432 0.2860578621
339 3 15.6985612557 10.5603397983 11.9950029104
340 3 30.467984678 8.3373246886 10.0621457195
341 3 30.4572488811 9.5034464056 9.0086441765
342 3 11.7026932419 8.8149887756 0.9985817706
343 3 11.7703198697 7.4817757445 0.1060607082
344 3 24.8818454705 10.8600483396 10.5234819426
345 3 26.3405592476 11.1962752669 9.8973998264
346 3 21.1785805529 1.472360149 5.8839912274
347 3 20.7754591204 2.5685676899 6.9837181289
348 3 23.3604666039 2.776787955 2.4580092538
349 3 24.5756373778 2.3962102272 3.5069564189
350 3 13.7009336198 5.9018393549 9.5170200679
351 3 14.9752827882 5.2413330525 10.1472823756
352 3 14.9430353005 2.2979750345 8.4835438754
353 3 15.0491236731 2.3358554896 6.9058008748
354 3 12.1453229204 4.8191980292 2.7106364781
355 3 12.8005641082 5.9648543438 1.930244778
356 3 12.0033279511 7.0231339166 3.8713885102
357 3 11.4527441808 7.4160334251 5.286222999
358 3 28.1828831113 5.6948380146 11.4212291916
359 3 29.7085051369 5.3424168538 11.415102536
360 3 13.9422388639 5.5991201627 3.83998725
361 3 14.9064528398 6.5566529776 4.621315576
362 3 28.5898966707 11.6649208033 9.60052066
363 3 27.832511245 12.5113086539 10.6804587026
364 3 30.5794151335 6.5217363831 5.735882257
365 3 29.8347797345 6.424355169 7.1366957076
366 3 11.2909845765 11.2512117248 1.9464964116
367 3 11.3542735929 12.3905713371 0.8434511627
368 3 13.1584457982 5.6788931022 11.6985918094
369 3 12.0609338187 4.9771875195 0.3137315114
370 3 26.8702017531 2.9095007179 9.1085632318
371 3 25.3631569275 2.4513701131 9.4454304364
372 3 28.9398156134 4.4077821695 0.9264209218
373 3 29.4700690416 3.9457467177 2.4235724649
374 3 19.2704461029 2.0861512784 3.1770087211
375 3 19.1215977619 0.5752987525 3.7663852693
376 3 30.6466670395 11.4861351434 8.2020266954
377 3 30.6770285563 12.5525929249 9.395683585
378 3 11.888836478 10.3520650967 6.5185508259
379 3 12.8557501094 11.5599517263 6.3766660879
380 3 13.5466168397 8.3318347849 4.9849548142
381 3 14.7376890639 9.1413442266 4.4082656626
382 3 12.9336635496 10.020139209 2.6811674967
383 3 11.7305955021 9.1760647975 3.2524548497
384 3 26.4992392581 6.6117182903 4.8603030616
385 3 28.1018526621 6.3854669282 4.7399243098
386 3 10.3199534097 10.2524031088 10.4592175003
387 3 11.3895055569 9.3637289845 11.21140817
388 3 13.2125505621 7.8080629052 8.1307871772
389 3 14.4011963955 6.814177249 7.6430068325
390 3 30.1020354428 1.7474503458 5.7856663533
391 3 30.9721449123 2.8533191446 6.3908191045
392 3 21.1275130282 0.5775340009 9.5746742125
393 3 21.303098806 0.8129319906 8.0238068099
394 3 27.821984854 6.2191251945 6.8881038932
395 3 28.1983737746 7.3620226518 7.8930426628
396 3 24.5114555311 0.5578889635 7.8017660679
397 3 24.9004493189 11.874316289 8.3175460726
398 3 27.5068595124 5.8438678693 9.2761499469
399 3 26.6470390131 4.7890092641 10.0462516074
400 3 28.1236540918 0.385934414 6.4093284387
401 3 29.3595741178 0.2763683879 7.4878634459
402 3 24.7375562262 7.5390999667 1.2094077486
403 3 25.9782114434 6.5710761574 1.560348241
404 3 17.1733430333 2.4151723399 7.4382449811
405 3 18.69406347 2.1927840977 6.9521824203
406 3 15.4948781997 5.4624211441 6.3636167855
407 3 16.6189626011 6.5416445488 6.4830841853
408 3 22.6188381532 1.6819918763 4.1258702739
409 3 21.1679250446 1.040124172 3.9163297564
410 3 15.8279787209 4.7858452857 3.2175326287
411 3 17.1524350594 4.0422848145 2.7213732315
